REMARK SMILES C=Cc1cnc[nH]1
REMARK SMILES IDX 3 1 4 2 5 3 6 4 7 5 2 7 1 8
REMARK H PARENT 7 6
ROOT
ATOM      1  C   UNL     1       0.102   0.386  -0.050  1.00  0.00     0.057 A 
ATOM      2  C   UNL     1       1.182   1.247  -0.067  1.00  0.00     0.138 A 
ATOM      3  N   UNL     1       2.358   0.582   0.170  1.00  0.00    -0.245 NA
ATOM      4  C   UNL     1       2.012  -0.673   0.332  1.00  0.00     0.196 A 
ATOM      5  N   UNL     1       0.661  -0.842   0.208  1.00  0.00    -0.345 N 
ATOM      6  H   UNL     1       0.175  -1.721   0.294  1.00  0.00     0.167 HD
ENDROOT
BRANCH   1   7
ATOM      7  C   UNL     1      -1.286   0.580  -0.236  1.00  0.00     0.020 C 
ATOM      8  C   UNL     1      -2.204  -0.393  -0.183  1.00  0.00     0.011 C 
ENDBRANCH   1   7
TORSDOF 1
