REMARK SMILES C=CC(=O)O
REMARK SMILES IDX 3 1 4 2 2 3 1 4 5 5
REMARK H PARENT 5 6
ROOT
ATOM      1  C   UNL     1       0.683   0.356  -0.462  1.00  0.00     0.327 C 
ATOM      2  O   UNL     1       0.762   1.564  -0.347  1.00  0.00    -0.247 OA
ENDROOT
BRANCH   1   3
ATOM      3  C   UNL     1      -0.305  -0.541   0.151  1.00  0.00     0.085 C 
ATOM      4  C   UNL     1      -1.267  -0.054   0.945  1.00  0.00     0.016 C 
ENDBRANCH   1   3
BRANCH   1   5
ATOM      5  O   UNL     1       1.543  -0.351  -1.211  1.00  0.00    -0.478 OA
ATOM      6  H   UNL     1       2.151   0.329  -1.570  1.00  0.00     0.297 HD
ENDBRANCH   1   5
TORSDOF 2
