REMARK SMILES C=CC(N)=O
REMARK SMILES IDX 3 1 4 2 5 3 2 6 1 7
REMARK H PARENT 4 4 4 5
ROOT
ATOM      1  C   UNL     1      -0.795  -0.632   0.102  1.00  0.00     0.240 C 
ATOM      2  N   UNL     1      -1.356   0.459   0.682  1.00  0.00    -0.366 N 
ATOM      3  O   UNL     1      -1.458  -1.611  -0.213  1.00  0.00    -0.270 OA
ATOM      4  H   UNL     1      -2.344   0.408   0.891  1.00  0.00     0.159 HD
ATOM      5  H   UNL     1      -0.813   1.193   1.110  1.00  0.00     0.159 HD
ENDROOT
BRANCH   1   6
ATOM      6  C   UNL     1       0.674  -0.610  -0.084  1.00  0.00     0.063 C 
ATOM      7  C   UNL     1       1.437   0.490  -0.134  1.00  0.00     0.014 C 
ENDBRANCH   1   6
TORSDOF 1
