REMARK SMILES Nc1ccc(C(O)O)cc1
REMARK SMILES IDX 2 1 3 2 4 3 5 4 9 5 10 6 1 7 6 10 7 11 8 13
REMARK H PARENT 1 8 1 9 7 12 8 14
ROOT
ATOM      1  C   UNL     1       1.743  -0.046  -0.079  1.00  0.00     0.031 A 
ATOM      2  C   UNL     1       1.192   0.228   1.159  1.00  0.00     0.026 A 
ATOM      3  C   UNL     1      -0.171   0.267   1.323  1.00  0.00     0.015 A 
ATOM      4  C   UNL     1      -0.959   0.024   0.208  1.00  0.00     0.029 A 
ATOM      5  C   UNL     1      -0.415  -0.251  -1.033  1.00  0.00     0.015 A 
ATOM      6  C   UNL     1       0.967  -0.292  -1.202  1.00  0.00     0.026 A 
ENDROOT
BRANCH   1   7
ATOM      7  N   UNL     1       3.180  -0.074  -0.186  1.00  0.00    -0.399 N 
ATOM      8  H   UNL     1       3.650  -0.628  -0.940  1.00  0.00     0.156 HD
ATOM      9  H   UNL     1       3.750   0.482   0.518  1.00  0.00     0.156 HD
ENDBRANCH   1   7
BRANCH   4  10
ATOM     10  C   UNL     1      -2.517   0.065   0.377  1.00  0.00     0.184  B
BRANCH  10  11
ATOM     11  O   UNL     1      -3.212  -1.208   0.452  1.00  0.00    -0.341 OA
ATOM     12  H   UNL     1      -3.026  -1.741  -0.359  1.00  0.00     0.220 HD
ENDBRANCH  10  11
BRANCH  10  13
ATOM     13  O   UNL     1      -3.180   1.321   0.029  1.00  0.00    -0.341 OA
ATOM     14  H   UNL     1      -2.605   1.892  -0.550  1.00  0.00     0.220 HD
ENDBRANCH  10  13
ENDBRANCH   4  10
TORSDOF 4
