REMARK SMILES CCOS(OCC)(OCC)OCCCN
REMARK SMILES IDX 12 1 13 2 14 3 15 4 11 7 4 8 3 9 2 10 1 11 5 12 6 13 7 14
REMARK SMILES IDX 8 15 9 16 10 17
REMARK H PARENT 15 5 15 6
ROOT
ATOM      1  C   UNL     1       1.832  -0.386   0.243  1.00  0.00     0.184 C 
ENDROOT
BRANCH   1   2
ATOM      2  C   UNL     1       2.860  -1.506   0.094  1.00  0.00     0.045 C 
BRANCH   2   3
ATOM      3  C   UNL     1       4.267  -1.088   0.509  1.00  0.00     0.080 C 
BRANCH   3   4
ATOM      4  N   UNL     1       4.343  -0.761   1.928  1.00  0.00    -0.330 NA
ATOM      5  H   UNL     1       5.307  -0.532   2.171  1.00  0.00     0.118 HD
ATOM      6  H   UNL     1       4.101  -1.583   2.482  1.00  0.00     0.118 HD
ENDBRANCH   3   4
ENDBRANCH   2   3
ENDBRANCH   1   2
BRANCH   1   7
ATOM      7  O   UNL     1       0.586  -0.871  -0.254  1.00  0.00    -0.271 OA
BRANCH   7   8
ATOM      8  S   UNL     1      -0.724   0.148  -0.218  1.00  0.00     0.224 Si
BRANCH   8   9
ATOM      9  O   UNL     1      -1.098   0.520   1.356  1.00  0.00    -0.271 OA
BRANCH   9  10
ATOM     10  C   UNL     1      -1.520  -0.531   2.215  1.00  0.00     0.179 C 
ATOM     11  C   UNL     1      -1.758   0.055   3.596  1.00  0.00     0.036 C 
ENDBRANCH   9  10
ENDBRANCH   8   9
BRANCH   8  12
ATOM     12  O   UNL     1      -2.024  -0.599  -0.931  1.00  0.00    -0.271 OA
BRANCH  12  13
ATOM     13  C   UNL     1      -1.871  -1.100  -2.253  1.00  0.00     0.179 C 
ATOM     14  C   UNL     1      -3.197  -1.695  -2.690  1.00  0.00     0.036 C 
ENDBRANCH  12  13
ENDBRANCH   8  12
BRANCH   8  15
ATOM     15  O   UNL     1      -0.369   1.539  -1.051  1.00  0.00    -0.271 OA
BRANCH  15  16
ATOM     16  C   UNL     1      -1.292   2.618  -0.987  1.00  0.00     0.179 C 
ATOM     17  C   UNL     1      -0.773   3.738  -1.871  1.00  0.00     0.036 C 
ENDBRANCH  15  16
ENDBRANCH   8  15
ENDBRANCH   7   8
ENDBRANCH   1   7
TORSDOF 11
