REMARK SMILES CCOS(OCC)(OCC)OCCCC#N
REMARK SMILES IDX 11 1 12 2 13 3 14 4 16 5 15 6 4 7 3 8 2 9 1 10 5 11 6 12
REMARK SMILES IDX 7 13 8 14 9 15 10 16
REMARK H PARENT
ROOT
ATOM      1  O   UNL     1       0.845   0.830  -0.101  1.00  0.00    -0.271 OA
ENDROOT
BRANCH   1   2
ATOM      2  C   UNL     1       2.029   0.116   0.239  1.00  0.00     0.184 C 
BRANCH   2   3
ATOM      3  C   UNL     1       3.196   1.103   0.179  1.00  0.00     0.045 C 
BRANCH   3   4
ATOM      4  C   UNL     1       4.523   0.486   0.607  1.00  0.00     0.122 C 
ATOM      5  N   UNL     1       5.375  -1.323  -1.100  1.00  0.00    -0.198 NA
ATOM      6  C   UNL     1       5.000  -0.522  -0.348  1.00  0.00     0.062 C 
ENDBRANCH   3   4
ENDBRANCH   2   3
ENDBRANCH   1   2
BRANCH   1   7
ATOM      7  S   UNL     1      -0.608   0.029  -0.018  1.00  0.00     0.224 Si
BRANCH   7   8
ATOM      8  O   UNL     1      -1.795   0.963  -0.703  1.00  0.00    -0.271 OA
BRANCH   8   9
ATOM      9  C   UNL     1      -1.621   1.399  -2.045  1.00  0.00     0.179 C 
ATOM     10  C   UNL     1      -2.847   2.201  -2.446  1.00  0.00     0.036 C 
ENDBRANCH   8   9
ENDBRANCH   7   8
BRANCH   7  11
ATOM     11  O   UNL     1      -0.494  -1.410  -0.834  1.00  0.00    -0.271 OA
BRANCH  11  12
ATOM     12  C   UNL     1      -1.585  -2.318  -0.761  1.00  0.00     0.179 C 
ATOM     13  C   UNL     1      -1.256  -3.524  -1.623  1.00  0.00     0.036 C 
ENDBRANCH  11  12
ENDBRANCH   7  11
BRANCH   7  14
ATOM     14  O   UNL     1      -0.974  -0.262   1.574  1.00  0.00    -0.271 OA
BRANCH  14  15
ATOM     15  C   UNL     1      -1.317   0.843   2.401  1.00  0.00     0.179 C 
ATOM     16  C   UNL     1      -1.542   0.326   3.811  1.00  0.00     0.036 C 
ENDBRANCH  14  15
ENDBRANCH   7  14
ENDBRANCH   1   7
TORSDOF 10
