REMARK SMILES NCCc1ccc(O)c(O)c1
REMARK SMILES IDX 3 1 2 2 1 3 4 6 5 7 11 8 6 9 9 10 7 11 10 12 8 14
REMARK H PARENT 1 4 1 5 10 13 8 15
ROOT
ATOM      1  C   UNL     1      -1.631   0.314   0.585  1.00  0.00     0.050 C 
ENDROOT
BRANCH   1   2
ATOM      2  C   UNL     1      -2.407  -0.255  -0.607  1.00  0.00     0.082 C 
BRANCH   2   3
ATOM      3  N   UNL     1      -3.848  -0.074  -0.435  1.00  0.00    -0.330 NA
ATOM      4  H   UNL     1      -4.329  -0.432  -1.260  1.00  0.00     0.118 HD
ATOM      5  H   UNL     1      -4.063   0.922  -0.395  1.00  0.00     0.118 HD
ENDBRANCH   2   3
ENDBRANCH   1   2
BRANCH   1   6
ATOM      6  C   UNL     1      -0.142   0.126   0.422  1.00  0.00    -0.043 A 
ATOM      7  C   UNL     1       0.487  -1.030   0.916  1.00  0.00     0.008 A 
ATOM      8  C   UNL     1       0.624   1.089  -0.250  1.00  0.00     0.054 A 
ATOM      9  C   UNL     1       1.863  -1.220   0.753  1.00  0.00     0.050 A 
ATOM     10  C   UNL     1       1.988   0.891  -0.409  1.00  0.00     0.157 A 
ATOM     11  C   UNL     1       2.607  -0.253   0.089  1.00  0.00     0.157 A 
BRANCH  10  12
ATOM     12  O   UNL     1       2.727   1.834  -1.064  1.00  0.00    -0.504 OA
ATOM     13  H   UNL     1       3.639   1.483  -1.047  1.00  0.00     0.293 HD
ENDBRANCH  10  12
BRANCH  11  14
ATOM     14  O   UNL     1       3.954  -0.382  -0.104  1.00  0.00    -0.504 OA
ATOM     15  H   UNL     1       4.236  -1.220   0.303  1.00  0.00     0.293 HD
ENDBRANCH  11  14
ENDBRANCH   1   6
TORSDOF 5
