REMARK SMILES COS(C)(C)OC
REMARK SMILES IDX 4 1 3 2 5 3 2 4 1 5 6 6 7 7
REMARK H PARENT
ROOT
ATOM      1  C   UNL     1      -0.965  -0.645   1.346  1.00  0.00     0.121 C 
ATOM      2  S   UNL     1      -0.393  -0.230  -0.396  1.00  0.00    -0.037 Si
ATOM      3  C   UNL     1      -1.283  -1.400  -1.570  1.00  0.00     0.121 C 
ENDROOT
BRANCH   2   4
ATOM      4  O   UNL     1       1.262  -0.408  -0.582  1.00  0.00    -0.317 OA
ATOM      5  C   UNL     1       2.099  -0.501   0.557  1.00  0.00     0.214 C 
ENDBRANCH   2   4
BRANCH   2   6
ATOM      6  O   UNL     1      -0.796   1.352  -0.769  1.00  0.00    -0.317 OA
ATOM      7  C   UNL     1       0.022   2.406  -0.290  1.00  0.00     0.214 C 
ENDBRANCH   2   6
TORSDOF 2
