REMARK SMILES COS(OC)(OC)OCCCNCCN
REMARK SMILES IDX 11 1 12 2 13 4 14 5 15 6 10 9 9 10 8 11 3 12 2 13 1 14 4 15
REMARK SMILES IDX 5 16 6 17 7 18
REMARK H PARENT 12 3 15 7 15 8
ROOT
ATOM      1  C   UNL     1       2.304   0.505  -0.019  1.00  0.00     0.083 C 
ENDROOT
BRANCH   1   2
ATOM      2  N   UNL     1       3.472  -0.099  -0.661  1.00  0.00    -0.315 NA
ATOM      3  H   UNL     1       3.323  -0.157  -1.669  1.00  0.00     0.122 HD
BRANCH   2   4
ATOM      4  C   UNL     1       3.777  -1.442  -0.141  1.00  0.00     0.096 C 
BRANCH   4   5
ATOM      5  C   UNL     1       5.047  -2.009  -0.810  1.00  0.00     0.093 C 
BRANCH   5   6
ATOM      6  N   UNL     1       6.148  -1.038  -0.804  1.00  0.00    -0.329 NA
ATOM      7  H   UNL     1       6.417  -0.867   0.165  1.00  0.00     0.118 HD
ATOM      8  H   UNL     1       5.736  -0.143  -1.091  1.00  0.00     0.118 HD
ENDBRANCH   5   6
ENDBRANCH   4   5
ENDBRANCH   2   4
ENDBRANCH   1   2
BRANCH   1   9
ATOM      9  C   UNL     1       0.976  -0.084  -0.492  1.00  0.00     0.045 C 
BRANCH   9  10
ATOM     10  C   UNL     1      -0.208   0.642   0.145  1.00  0.00     0.184 C 
BRANCH  10  11
ATOM     11  O   UNL     1      -1.404   0.039  -0.339  1.00  0.00    -0.271 OA
BRANCH  11  12
ATOM     12  S   UNL     1      -2.862   0.634   0.190  1.00  0.00     0.223 Si
BRANCH  12  13
ATOM     13  O   UNL     1      -2.989   2.233  -0.234  1.00  0.00    -0.275 OA
ATOM     14  C   UNL     1      -2.939   2.573  -1.609  1.00  0.00     0.219 C 
ENDBRANCH  12  13
BRANCH  12  15
ATOM     15  O   UNL     1      -4.098  -0.226  -0.509  1.00  0.00    -0.275 OA
ATOM     16  C   UNL     1      -5.432   0.130  -0.188  1.00  0.00     0.219 C 
ENDBRANCH  12  15
BRANCH  12  17
ATOM     17  O   UNL     1      -2.948   0.487   1.841  1.00  0.00    -0.275 OA
ATOM     18  C   UNL     1      -2.867  -0.810   2.408  1.00  0.00     0.219 C 
ENDBRANCH  12  17
ENDBRANCH  11  12
ENDBRANCH  10  11
ENDBRANCH   9  10
ENDBRANCH   1   9
TORSDOF 11
