REMARK SMILES C=C(C)C(=O)OCCO
REMARK SMILES IDX 6 1 4 2 5 3 2 4 1 5 3 6 7 7 8 8 9 9
REMARK H PARENT 9 10
ROOT
ATOM      1  O   UNL     1       0.473  -0.210   0.033  1.00  0.00    -0.460 OA
ENDROOT
BRANCH   1   2
ATOM      2  C   UNL     1      -0.687  -0.059  -0.652  1.00  0.00     0.333 C 
ATOM      3  O   UNL     1      -0.849  -0.313  -1.837  1.00  0.00    -0.247 OA
BRANCH   2   4
ATOM      4  C   UNL     1      -1.780   0.450   0.228  1.00  0.00     0.027 C 
ATOM      5  C   UNL     1      -1.578   0.786   1.514  1.00  0.00     0.020 C 
ATOM      6  C   UNL     1      -3.122   0.568  -0.431  1.00  0.00     0.051 C 
ENDBRANCH   2   4
ENDBRANCH   1   2
BRANCH   1   7
ATOM      7  C   UNL     1       1.576  -0.660  -0.769  1.00  0.00     0.261 C 
BRANCH   7   8
ATOM      8  C   UNL     1       2.805  -0.804   0.122  1.00  0.00     0.197 C 
BRANCH   8   9
ATOM      9  O   UNL     1       3.287   0.482   0.508  1.00  0.00    -0.393 OA
ATOM     10  H   UNL     1       4.022   0.337   1.127  1.00  0.00     0.210 HD
ENDBRANCH   8   9
ENDBRANCH   7   8
ENDBRANCH   1   7
TORSDOF 5
