REMARK SMILES CCOS(OCC)(OCC)OCC(C)C
REMARK SMILES IDX 11 1 12 2 13 3 14 4 15 5 4 6 3 7 2 8 1 9 5 10 6 11 7 12 8 13
REMARK SMILES IDX 9 14 10 15
REMARK H PARENT
ROOT
ATOM      1  O   UNL     1       0.831   0.472   0.233  1.00  0.00    -0.271 OA
ENDROOT
BRANCH   1   2
ATOM      2  C   UNL     1       1.799  -0.559   0.397  1.00  0.00     0.186 C 
BRANCH   2   3
ATOM      3  C   UNL     1       3.202   0.067   0.387  1.00  0.00     0.010 C 
ATOM      4  C   UNL     1       4.260  -0.990   0.694  1.00  0.00     0.010 C 
ATOM      5  C   UNL     1       3.498   0.743  -0.954  1.00  0.00     0.010 C 
ENDBRANCH   2   3
ENDBRANCH   1   2
BRANCH   1   6
ATOM      6  S   UNL     1      -0.762   0.038   0.063  1.00  0.00     0.224 Si
BRANCH   6   7
ATOM      7  O   UNL     1      -1.713   1.398   0.084  1.00  0.00    -0.271 OA
BRANCH   7   8
ATOM      8  C   UNL     1      -1.578   2.299   1.176  1.00  0.00     0.179 C 
ATOM      9  C   UNL     1      -2.579   3.425   0.987  1.00  0.00     0.036 C 
ENDBRANCH   7   8
ENDBRANCH   6   7
BRANCH   6  10
ATOM     10  O   UNL     1      -0.962  -0.756  -1.380  1.00  0.00    -0.271 OA
BRANCH  10  11
ATOM     11  C   UNL     1      -0.724  -0.037  -2.583  1.00  0.00     0.179 C 
ATOM     12  C   UNL     1      -0.927  -0.986  -3.751  1.00  0.00     0.036 C 
ENDBRANCH  10  11
ENDBRANCH   6  10
BRANCH   6  13
ATOM     13  O   UNL     1      -1.202  -0.961   1.314  1.00  0.00    -0.271 OA
BRANCH  13  14
ATOM     14  C   UNL     1      -2.494  -1.555   1.279  1.00  0.00     0.179 C 
ATOM     15  C   UNL     1      -2.669  -2.378   2.543  1.00  0.00     0.036 C 
ENDBRANCH  13  14
ENDBRANCH   6  13
ENDBRANCH   1   6
TORSDOF 9
