REMARK SMILES CCOS(OCC)(OCC)OCCCN=C=O
REMARK SMILES IDX 11 1 12 2 13 3 14 4 15 5 17 6 16 7 4 8 3 9 2 10 1 11 5 12
REMARK SMILES IDX 6 13 7 14 8 15 9 16 10 17
REMARK H PARENT
ROOT
ATOM      1  O   UNL     1       0.244  -0.120   1.049  1.00  0.00    -0.271 OA
ENDROOT
BRANCH   1   2
ATOM      2  C   UNL     1       1.645   0.024   0.838  1.00  0.00     0.185 C 
BRANCH   2   3
ATOM      3  C   UNL     1       2.337  -0.089   2.195  1.00  0.00     0.054 C 
BRANCH   3   4
ATOM      4  C   UNL     1       3.858  -0.038   2.086  1.00  0.00     0.159 C 
BRANCH   4   5
ATOM      5  N   UNL     1       4.270   1.294   1.627  1.00  0.00    -0.206 NA
ATOM      6  O   UNL     1       6.600   1.568   1.529  1.00  0.00    -0.211 OA
ATOM      7  C   UNL     1       5.433   1.438   1.576  1.00  0.00     0.234 C 
ENDBRANCH   4   5
ENDBRANCH   3   4
ENDBRANCH   2   3
ENDBRANCH   1   2
BRANCH   1   8
ATOM      8  S   UNL     1      -0.758  -0.103  -0.275  1.00  0.00     0.224 Si
BRANCH   8   9
ATOM      9  O   UNL     1      -0.445   1.244  -1.192  1.00  0.00    -0.271 OA
BRANCH   9  10
ATOM     10  C   UNL     1      -1.099   1.373  -2.448  1.00  0.00     0.179 C 
ATOM     11  C   UNL     1      -0.686   2.699  -3.062  1.00  0.00     0.036 C 
ENDBRANCH   9  10
ENDBRANCH   8   9
BRANCH   8  12
ATOM     12  O   UNL     1      -2.339  -0.074   0.226  1.00  0.00    -0.271 OA
BRANCH  12  13
ATOM     13  C   UNL     1      -2.746   0.959   1.116  1.00  0.00     0.179 C 
ATOM     14  C   UNL     1      -4.230   0.790   1.388  1.00  0.00     0.036 C 
ENDBRANCH  12  13
ENDBRANCH   8  12
BRANCH   8  15
ATOM     15  O   UNL     1      -0.486  -1.467  -1.181  1.00  0.00    -0.271 OA
BRANCH  15  16
ATOM     16  C   UNL     1      -0.858  -2.725  -0.634  1.00  0.00     0.179 C 
ATOM     17  C   UNL     1      -0.458  -3.807  -1.621  1.00  0.00     0.036 C 
ENDBRANCH  15  16
ENDBRANCH   8  15
ENDBRANCH   1   8
TORSDOF 11
