REMARK SMILES COS(C)(OC)OC
REMARK SMILES IDX 4 1 3 2 2 3 1 4 5 5 6 6 7 7 8 8
REMARK H PARENT
ROOT
ATOM      1  C   UNL     1      -0.887  -1.071  -1.658  1.00  0.00     0.154 C 
ATOM      2  S   UNL     1       0.049  -0.104  -0.363  1.00  0.00     0.085 Si
ENDROOT
BRANCH   2   3
ATOM      3  O   UNL     1       1.571  -0.751  -0.138  1.00  0.00    -0.296 OA
ATOM      4  C   UNL     1       2.537   0.024   0.555  1.00  0.00     0.216 C 
ENDBRANCH   2   3
BRANCH   2   5
ATOM      5  O   UNL     1      -0.751  -0.135   1.102  1.00  0.00    -0.296 OA
ATOM      6  C   UNL     1      -0.835  -1.364   1.805  1.00  0.00     0.216 C 
ENDBRANCH   2   5
BRANCH   2   7
ATOM      7  O   UNL     1       0.221   1.490  -0.827  1.00  0.00    -0.296 OA
ATOM      8  C   UNL     1      -0.905   2.347  -0.744  1.00  0.00     0.216 C 
ENDBRANCH   2   7
TORSDOF 3
