REMARK SMILES NCC(O)c1ccc(O)c(O)c1
REMARK SMILES IDX 3 1 2 2 1 3 4 6 5 8 6 9 12 10 7 11 10 12 8 13 11 14 9 16
REMARK H PARENT 1 4 1 5 4 7 11 15 9 17
ROOT
ATOM      1  C   UNL     1      -1.504   0.578   0.258  1.00  0.00     0.158 C 
ENDROOT
BRANCH   1   2
ATOM      2  C   UNL     1      -2.454  -0.283  -0.608  1.00  0.00     0.114 C 
BRANCH   2   3
ATOM      3  N   UNL     1      -3.867   0.096  -0.439  1.00  0.00    -0.328 NA
ATOM      4  H   UNL     1      -4.055   0.067   0.569  1.00  0.00     0.118 HD
ATOM      5  H   UNL     1      -3.979   1.078  -0.687  1.00  0.00     0.118 HD
ENDBRANCH   2   3
ENDBRANCH   1   2
BRANCH   1   6
ATOM      6  O   UNL     1      -1.919   0.512   1.629  1.00  0.00    -0.387 OA
ATOM      7  H   UNL     1      -1.140   0.724   2.172  1.00  0.00     0.211 HD
ENDBRANCH   1   6
BRANCH   1   8
ATOM      8  C   UNL     1      -0.057   0.151   0.134  1.00  0.00    -0.014 A 
ATOM      9  C   UNL     1       0.385  -1.072   0.674  1.00  0.00     0.010 A 
ATOM     10  C   UNL     1       0.868   0.977  -0.524  1.00  0.00     0.056 A 
ATOM     11  C   UNL     1       1.719  -1.469   0.549  1.00  0.00     0.050 A 
ATOM     12  C   UNL     1       2.195   0.580  -0.629  1.00  0.00     0.157 A 
ATOM     13  C   UNL     1       2.611  -0.645  -0.120  1.00  0.00     0.157 A 
BRANCH  12  14
ATOM     14  O   UNL     1       3.089   1.428  -1.216  1.00  0.00    -0.504 OA
ATOM     15  H   UNL     1       3.933   1.297  -0.745  1.00  0.00     0.293 HD
ENDBRANCH  12  14
BRANCH  13  16
ATOM     16  O   UNL     1       3.896  -1.068  -0.296  1.00  0.00    -0.504 OA
ATOM     17  H   UNL     1       4.136  -0.823  -1.209  1.00  0.00     0.293 HD
ENDBRANCH  13  16
ENDBRANCH   1   8
TORSDOF 6
