REMARK SMILES C=CC(=O)NC(C)C
REMARK SMILES IDX 5 1 3 2 4 3 6 5 7 6 8 7 2 8 1 9
REMARK H PARENT 5 4
ROOT
ATOM      1  N   UNL     1       0.169  -0.364   0.247  1.00  0.00    -0.350 N 
ATOM      2  C   UNL     1       1.091   0.246  -0.570  1.00  0.00     0.243 C 
ATOM      3  O   UNL     1       0.825   0.784  -1.636  1.00  0.00    -0.270 OA
ATOM      4  H   UNL     1       0.452  -0.666   1.169  1.00  0.00     0.164 HD
ENDROOT
BRANCH   1   5
ATOM      5  C   UNL     1      -1.255  -0.324  -0.051  1.00  0.00     0.076 C 
ATOM      6  C   UNL     1      -1.869   0.988   0.433  1.00  0.00     0.030 C 
ATOM      7  C   UNL     1      -1.958  -1.518   0.588  1.00  0.00     0.030 C 
ENDBRANCH   1   5
BRANCH   2   8
ATOM      8  C   UNL     1       2.469   0.198  -0.017  1.00  0.00     0.063 C 
ATOM      9  C   UNL     1       3.481   0.792  -0.662  1.00  0.00     0.014 C 
ENDBRANCH   2   8
TORSDOF 2
