REMARK SMILES CCOS(OCC)(OCC)c1ccccc1
REMARK SMILES IDX 4 1 3 2 2 3 1 4 5 5 6 6 7 7 8 8 9 9 10 10 11 11 12 12 16 13
REMARK SMILES IDX 13 14 15 15 14 16
REMARK H PARENT
ROOT
ATOM      1  S   UNL     1      -0.218   0.330   0.004  1.00  0.00     0.120 Si
ENDROOT
BRANCH   1   2
ATOM      2  O   UNL     1      -1.441  -0.738   0.352  1.00  0.00    -0.289 OA
BRANCH   2   3
ATOM      3  C   UNL     1      -1.524  -1.277   1.666  1.00  0.00     0.177 C 
ATOM      4  C   UNL     1      -2.651  -2.295   1.688  1.00  0.00     0.036 C 
ENDBRANCH   2   3
ENDBRANCH   1   2
BRANCH   1   5
ATOM      5  O   UNL     1      -0.518   1.124  -1.422  1.00  0.00    -0.289 OA
BRANCH   5   6
ATOM      6  C   UNL     1      -0.865   0.369  -2.574  1.00  0.00     0.177 C 
ATOM      7  C   UNL     1      -1.133   1.339  -3.712  1.00  0.00     0.036 C 
ENDBRANCH   5   6
ENDBRANCH   1   5
BRANCH   1   8
ATOM      8  O   UNL     1      -0.018   1.417   1.243  1.00  0.00    -0.289 OA
BRANCH   8   9
ATOM      9  C   UNL     1      -0.916   2.516   1.331  1.00  0.00     0.177 C 
ATOM     10  C   UNL     1      -0.588   3.295   2.593  1.00  0.00     0.036 C 
ENDBRANCH   8   9
ENDBRANCH   1   8
BRANCH   1  11
ATOM     11  C   UNL     1       1.379  -0.633  -0.185  1.00  0.00     0.064 A 
ATOM     12  C   UNL     1       1.375  -1.980  -0.597  1.00  0.00     0.020 A 
ATOM     13  C   UNL     1       2.621  -0.026   0.075  1.00  0.00     0.020 A 
ATOM     14  C   UNL     1       2.569  -2.691  -0.740  1.00  0.00     0.001 A 
ATOM     15  C   UNL     1       3.814  -0.739  -0.069  1.00  0.00     0.001 A 
ATOM     16  C   UNL     1       3.787  -2.071  -0.477  1.00  0.00     0.000 A 
ENDBRANCH   1  11
TORSDOF 7
