REMARK SMILES C=CC(=O)NC(C)(C)C
REMARK SMILES IDX 3 1 4 2 5 3 2 5 1 6 6 7 7 8 8 9 9 10
REMARK H PARENT 5 4
ROOT
ATOM      1  C   UNL     1       1.409  -0.198   0.162  1.00  0.00     0.243 C 
ATOM      2  O   UNL     1       1.440  -1.411   0.315  1.00  0.00    -0.270 OA
ATOM      3  N   UNL     1       0.275   0.546  -0.063  1.00  0.00    -0.348 N 
ATOM      4  H   UNL     1       0.372   1.545  -0.175  1.00  0.00     0.164 HD
ENDROOT
BRANCH   1   5
ATOM      5  C   UNL     1       2.639   0.638   0.203  1.00  0.00     0.063 C 
ATOM      6  C   UNL     1       3.836   0.075   0.412  1.00  0.00     0.014 C 
ENDBRANCH   1   5
BRANCH   3   7
ATOM      7  C   UNL     1      -1.084  -0.011  -0.153  1.00  0.00     0.032 C 
ATOM      8  C   UNL     1      -1.486  -0.696   1.163  1.00  0.00     0.034 C 
ATOM      9  C   UNL     1      -2.059   1.153  -0.411  1.00  0.00     0.034 C 
ATOM     10  C   UNL     1      -1.196  -1.002  -1.322  1.00  0.00     0.034 C 
ENDBRANCH   3   7
TORSDOF 2
