REMARK SMILES COS(OC)(OC)c1ccc(C)cc1
REMARK SMILES IDX 3 1 8 2 11 3 10 4 13 5 9 6 14 7 12 8 2 9 1 10 4 11 5 12 6 13
REMARK SMILES IDX 7 14
REMARK H PARENT
ROOT
ATOM      1  S   UNL     1      -1.564  -0.336   0.213  1.00  0.00     0.119 Si
ENDROOT
BRANCH   1   2
ATOM      2  C   UNL     1       0.231  -0.023  -0.231  1.00  0.00     0.064 A 
ATOM      3  C   UNL     1       2.941   0.430  -0.920  1.00  0.00    -0.051 A 
ATOM      4  C   UNL     1       2.468   0.752   0.356  1.00  0.00     0.005 A 
ATOM      5  C   UNL     1       2.050  -0.100  -1.857  1.00  0.00     0.005 A 
ATOM      6  C   UNL     1       1.132   0.524   0.699  1.00  0.00     0.020 A 
ATOM      7  C   UNL     1       0.713  -0.329  -1.517  1.00  0.00     0.020 A 
ATOM      8  C   UNL     1       4.366   0.707  -1.296  1.00  0.00     0.044 C 
ENDBRANCH   1   2
BRANCH   1   9
ATOM      9  O   UNL     1      -1.870  -1.956   0.029  1.00  0.00    -0.292 OA
ATOM     10  C   UNL     1      -1.110  -2.888   0.780  1.00  0.00     0.217 C 
ENDBRANCH   1   9
BRANCH   1  11
ATOM     11  O   UNL     1      -1.812   0.131   1.788  1.00  0.00    -0.292 OA
ATOM     12  C   UNL     1      -3.112  -0.022   2.334  1.00  0.00     0.217 C 
ENDBRANCH   1  11
BRANCH   1  13
ATOM     13  O   UNL     1      -2.515   0.554  -0.815  1.00  0.00    -0.292 OA
ATOM     14  C   UNL     1      -2.360   1.963  -0.849  1.00  0.00     0.217 C 
ENDBRANCH   1  13
TORSDOF 4
