REMARK SMILES COS(OC)(OC)OCCCNC(N)=O
REMARK SMILES IDX 9 1 10 2 11 3 12 4 15 5 13 6 14 7 8 11 3 12 2 13 1 14 4 15
REMARK SMILES IDX 5 16 6 17 7 18
REMARK H PARENT 14 8 14 9 12 10
ROOT
ATOM      1  C   UNL     1       0.382   0.446   0.503  1.00  0.00     0.185 C 
ENDROOT
BRANCH   1   2
ATOM      2  C   UNL     1       1.339   0.514   1.691  1.00  0.00     0.051 C 
BRANCH   2   3
ATOM      3  C   UNL     1       2.654   1.192   1.336  1.00  0.00     0.120 C 
BRANCH   3   4
ATOM      4  N   UNL     1       3.443   0.404   0.411  1.00  0.00    -0.338 N 
ATOM      5  O   UNL     1       4.805   2.162  -0.199  1.00  0.00    -0.249 OA
ATOM      6  C   UNL     1       4.497   0.982  -0.237  1.00  0.00     0.312 C 
ATOM      7  N   UNL     1       5.198   0.078  -0.968  1.00  0.00    -0.352 N 
ATOM      8  H   UNL     1       4.641  -0.609  -1.454  1.00  0.00     0.161 HD
ATOM      9  H   UNL     1       5.901   0.519  -1.549  1.00  0.00     0.161 HD
ATOM     10  H   UNL     1       3.632  -0.551   0.681  1.00  0.00     0.165 HD
ENDBRANCH   3   4
ENDBRANCH   2   3
ENDBRANCH   1   2
BRANCH   1  11
ATOM     11  O   UNL     1      -0.827  -0.160   0.952  1.00  0.00    -0.271 OA
BRANCH  11  12
ATOM     12  S   UNL     1      -2.051  -0.400  -0.145  1.00  0.00     0.223 Si
BRANCH  12  13
ATOM     13  O   UNL     1      -2.492   1.055  -0.810  1.00  0.00    -0.275 OA
ATOM     14  C   UNL     1      -2.979   2.071   0.050  1.00  0.00     0.219 C 
ENDBRANCH  12  13
BRANCH  12  15
ATOM     15  O   UNL     1      -1.521  -1.422  -1.341  1.00  0.00    -0.275 OA
ATOM     16  C   UNL     1      -1.094  -2.723  -0.975  1.00  0.00     0.219 C 
ENDBRANCH  12  15
BRANCH  12  17
ATOM     17  O   UNL     1      -3.356  -1.079   0.623  1.00  0.00    -0.275 OA
ATOM     18  C   UNL     1      -4.515  -1.364  -0.143  1.00  0.00     0.219 C 
ENDBRANCH  12  17
ENDBRANCH  11  12
ENDBRANCH   1  11
TORSDOF 8
