REMARK SMILES C=CS(OC)(OC)OC
REMARK SMILES IDX 3 1 2 2 1 3 4 4 5 5 6 6 7 7 8 8 9 9
REMARK H PARENT
ROOT
ATOM      1  S   UNL     1      -0.081  -0.009   0.358  1.00  0.00     0.111 Si
ENDROOT
BRANCH   1   2
ATOM      2  C   UNL     1      -0.954   1.615   0.485  1.00  0.00     0.095 C 
ATOM      3  C   UNL     1      -1.441   2.348  -0.525  1.00  0.00     0.021 C 
ENDBRANCH   1   2
BRANCH   1   4
ATOM      4  O   UNL     1       0.751  -0.126  -1.082  1.00  0.00    -0.293 OA
ATOM      5  C   UNL     1       1.903   0.681  -1.267  1.00  0.00     0.217 C 
ENDBRANCH   1   4
BRANCH   1   6
ATOM      6  O   UNL     1       1.003  -0.163   1.615  1.00  0.00    -0.293 OA
ATOM      7  C   UNL     1       1.520  -1.451   1.901  1.00  0.00     0.217 C 
ENDBRANCH   1   6
BRANCH   1   8
ATOM      8  O   UNL     1      -1.175  -1.262   0.442  1.00  0.00    -0.293 OA
ATOM      9  C   UNL     1      -2.030  -1.493  -0.665  1.00  0.00     0.217 C 
ENDBRANCH   1   8
TORSDOF 4
