REMARK SMILES C=Cc1ccc(C=C)cc1
REMARK SMILES IDX 3 1 4 2 5 3 6 4 9 5 10 6 2 7 1 8 7 9 8 10
REMARK H PARENT
ROOT
ATOM      1  C   UNL     1       1.397   0.137   0.206  1.00  0.00    -0.026 A 
ATOM      2  C   UNL     1       0.473   1.024   0.774  1.00  0.00     0.009 A 
ATOM      3  C   UNL     1      -0.903   0.890   0.540  1.00  0.00     0.009 A 
ATOM      4  C   UNL     1      -1.397  -0.137  -0.271  1.00  0.00    -0.026 A 
ATOM      5  C   UNL     1      -0.473  -1.024  -0.839  1.00  0.00     0.009 A 
ATOM      6  C   UNL     1       0.903  -0.890  -0.605  1.00  0.00     0.009 A 
ENDROOT
BRANCH   1   7
ATOM      7  C   UNL     1       2.828   0.336   0.493  1.00  0.00     0.000 C 
ATOM      8  C   UNL     1       3.846  -0.408   0.040  1.00  0.00     0.009 C 
ENDBRANCH   1   7
BRANCH   4   9
ATOM      9  C   UNL     1      -2.828  -0.336  -0.558  1.00  0.00     0.000 C 
ATOM     10  C   UNL     1      -3.846   0.408  -0.105  1.00  0.00     0.009 C 
ENDBRANCH   4   9
TORSDOF 2
