REMARK SMILES C=C(C)C(=O)OCCOC(=O)C(=C)C
REMARK SMILES IDX 7 1 6 2 4 3 5 4 2 5 1 6 3 7 8 8 9 9 10 10 11 11 12 12 13 13
REMARK SMILES IDX 14 14
REMARK H PARENT
ROOT
ATOM      1  C   UNL     1      -0.336   0.384  -0.064  1.00  0.00     0.275 C 
ENDROOT
BRANCH   1   2
ATOM      2  O   UNL     1      -1.703   0.006  -0.272  1.00  0.00    -0.459 OA
BRANCH   2   3
ATOM      3  C   UNL     1      -2.593   0.721   0.461  1.00  0.00     0.333 C 
ATOM      4  O   UNL     1      -2.312   1.630   1.228  1.00  0.00    -0.247 OA
BRANCH   3   5
ATOM      5  C   UNL     1      -3.994   0.267   0.217  1.00  0.00     0.027 C 
ATOM      6  C   UNL     1      -4.294  -0.743  -0.619  1.00  0.00     0.020 C 
ATOM      7  C   UNL     1      -5.046   1.019   0.975  1.00  0.00     0.051 C 
ENDBRANCH   3   5
ENDBRANCH   2   3
ENDBRANCH   1   2
BRANCH   1   8
ATOM      8  C   UNL     1       0.545  -0.426  -1.008  1.00  0.00     0.275 C 
BRANCH   8   9
ATOM      9  O   UNL     1       1.921  -0.032  -0.905  1.00  0.00    -0.459 OA
BRANCH   9  10
ATOM     10  C   UNL     1       2.610  -0.597   0.118  1.00  0.00     0.333 C 
ATOM     11  O   UNL     1       2.150  -1.382   0.934  1.00  0.00    -0.247 OA
BRANCH  10  12
ATOM     12  C   UNL     1       4.021  -0.116   0.112  1.00  0.00     0.027 C 
ATOM     13  C   UNL     1       4.846  -0.576   1.068  1.00  0.00     0.020 C 
ATOM     14  C   UNL     1       4.464   0.850  -0.942  1.00  0.00     0.051 C 
ENDBRANCH  10  12
ENDBRANCH   9  10
ENDBRANCH   8   9
ENDBRANCH   1   8
TORSDOF 7
