REMARK SMILES C=CC(=O)NCNC(=O)C=C
REMARK SMILES IDX 6 1 5 2 3 3 4 4 2 6 1 7 7 8 8 9 9 10 10 12 11 13
REMARK H PARENT 5 5 7 11
ROOT
ATOM      1  C   UNL     1      -0.103  -1.219  -0.453  1.00  0.00     0.236 C 
ENDROOT
BRANCH   1   2
ATOM      2  N   UNL     1       1.196  -0.755  -0.839  1.00  0.00    -0.335 N 
ATOM      3  C   UNL     1       2.091  -0.279   0.080  1.00  0.00     0.244 C 
ATOM      4  O   UNL     1       1.853  -0.166   1.275  1.00  0.00    -0.270 OA
ATOM      5  H   UNL     1       1.417  -0.765  -1.823  1.00  0.00     0.165 HD
BRANCH   3   6
ATOM      6  C   UNL     1       3.386   0.121  -0.527  1.00  0.00     0.063 C 
ATOM      7  C   UNL     1       4.363   0.630   0.234  1.00  0.00     0.014 C 
ENDBRANCH   3   6
ENDBRANCH   1   2
BRANCH   1   8
ATOM      8  N   UNL     1      -0.972  -0.105  -0.243  1.00  0.00    -0.335 N 
ATOM      9  C   UNL     1      -2.330  -0.263  -0.326  1.00  0.00     0.244 C 
ATOM     10  O   UNL     1      -2.882  -1.265  -0.761  1.00  0.00    -0.270 OA
ATOM     11  H   UNL     1      -0.592   0.636   0.328  1.00  0.00     0.165 HD
BRANCH   9  12
ATOM     12  C   UNL     1      -3.079   0.914   0.182  1.00  0.00     0.063 C 
ATOM     13  C   UNL     1      -4.417   0.907   0.213  1.00  0.00     0.014 C 
ENDBRANCH   9  12
ENDBRANCH   1   8
TORSDOF 4
