REMARK SMILES CCOS(OCC)(OCC)OCC
REMARK SMILES IDX 4 1 3 2 2 3 1 4 5 5 6 6 7 7 8 8 9 9 10 10 11 11 12 12 13 13
REMARK H PARENT
ROOT
ATOM      1  S   UNL     1       0.000  -0.000   0.000  1.00  0.00     0.224 Si
ENDROOT
BRANCH   1   2
ATOM      2  O   UNL     1       0.820   0.857   1.161  1.00  0.00    -0.271 OA
BRANCH   2   3
ATOM      3  C   UNL     1       0.115   1.253   2.330  1.00  0.00     0.179 C 
ATOM      4  C   UNL     1       1.062   2.056   3.205  1.00  0.00     0.036 C 
ENDBRANCH   2   3
ENDBRANCH   1   2
BRANCH   1   5
ATOM      5  O   UNL     1      -1.169   0.966  -0.674  1.00  0.00    -0.271 OA
BRANCH   5   6
ATOM      6  C   UNL     1      -0.755   2.093  -1.437  1.00  0.00     0.179 C 
ATOM      7  C   UNL     1      -1.998   2.832  -1.900  1.00  0.00     0.036 C 
ENDBRANCH   5   6
ENDBRANCH   1   5
BRANCH   1   8
ATOM      8  O   UNL     1      -0.711  -1.331   0.691  1.00  0.00    -0.271 OA
BRANCH   8   9
ATOM      9  C   UNL     1      -1.576  -2.126  -0.110  1.00  0.00     0.179 C 
ATOM     10  C   UNL     1      -2.055  -3.296   0.731  1.00  0.00     0.036 C 
ENDBRANCH   8   9
ENDBRANCH   1   8
BRANCH   1  11
ATOM     11  O   UNL     1       1.060  -0.493  -1.178  1.00  0.00    -0.271 OA
BRANCH  11  12
ATOM     12  C   UNL     1       2.216  -1.220  -0.784  1.00  0.00     0.179 C 
ATOM     13  C   UNL     1       2.991  -1.592  -2.036  1.00  0.00     0.036 C 
ENDBRANCH  11  12
ENDBRANCH   1  11
TORSDOF 8
