REMARK SMILES C=C(C)C(=O)OCC(CC)(COC(=O)C(=C)C)OC(=O)C(=C)C
REMARK SMILES IDX 8 1 7 2 6 3 4 4 5 5 2 6 1 7 3 8 9 9 10 10 11 11 12 12 13 13
REMARK SMILES IDX 14 14 15 15 16 16 17 17 18 18 19 19 20 20 21 21 22 22 23 23
REMARK H PARENT
ROOT
ATOM      1  C   UNL     1      -0.729   0.231  -0.630  1.00  0.00     0.180 C 
ENDROOT
BRANCH   1   2
ATOM      2  C   UNL     1       0.167  -0.397   0.466  1.00  0.00     0.285 C 
BRANCH   2   3
ATOM      3  O   UNL     1       1.514   0.096   0.348  1.00  0.00    -0.458 OA
BRANCH   3   4
ATOM      4  C   UNL     1       2.432  -0.556   1.101  1.00  0.00     0.333 C 
ATOM      5  O   UNL     1       2.213  -1.527   1.810  1.00  0.00    -0.247 OA
BRANCH   4   6
ATOM      6  C   UNL     1       3.786   0.055   0.951  1.00  0.00     0.027 C 
ATOM      7  C   UNL     1       4.016   1.130   0.178  1.00  0.00     0.020 C 
ATOM      8  C   UNL     1       4.875  -0.618   1.733  1.00  0.00     0.051 C 
ENDBRANCH   4   6
ENDBRANCH   3   4
ENDBRANCH   2   3
ENDBRANCH   1   2
BRANCH   1   9
ATOM      9  C   UNL     1      -0.405  -0.368  -2.031  1.00  0.00     0.053 C 
ATOM     10  C   UNL     1       0.995  -0.095  -2.572  1.00  0.00     0.008 C 
ENDBRANCH   1   9
BRANCH   1  11
ATOM     11  C   UNL     1      -2.232  -0.020  -0.329  1.00  0.00     0.285 C 
BRANCH  11  12
ATOM     12  O   UNL     1      -2.620  -1.389  -0.554  1.00  0.00    -0.458 OA
BRANCH  12  13
ATOM     13  C   UNL     1      -2.683  -2.192   0.537  1.00  0.00     0.333 C 
ATOM     14  O   UNL     1      -2.411  -1.857   1.679  1.00  0.00    -0.247 OA
BRANCH  13  15
ATOM     15  C   UNL     1      -3.108  -3.575   0.173  1.00  0.00     0.027 C 
ATOM     16  C   UNL     1      -3.425  -3.930  -1.084  1.00  0.00     0.020 C 
ATOM     17  C   UNL     1      -3.153  -4.545   1.316  1.00  0.00     0.051 C 
ENDBRANCH  13  15
ENDBRANCH  12  13
ENDBRANCH  11  12
ENDBRANCH   1  11
BRANCH   1  18
ATOM     18  O   UNL     1      -0.481   1.665  -0.766  1.00  0.00    -0.448 OA
BRANCH  18  19
ATOM     19  C   UNL     1      -0.661   2.492   0.289  1.00  0.00     0.333 C 
ATOM     20  O   UNL     1      -1.097   2.171   1.382  1.00  0.00    -0.247 OA
BRANCH  19  21
ATOM     21  C   UNL     1      -0.263   3.892  -0.045  1.00  0.00     0.027 C 
ATOM     22  C   UNL     1       0.216   4.242  -1.251  1.00  0.00     0.020 C 
ATOM     23  C   UNL     1      -0.433   4.882   1.068  1.00  0.00     0.051 C 
ENDBRANCH  19  21
ENDBRANCH  18  19
ENDBRANCH   1  18
TORSDOF 12
